LAMMPS data file via write_data, version 5 Nov 2014, timestep = 0

256 atoms
1 atom types

0.0000000000000000e+00 6.1959999999999997e+00 xlo xhi
0.0000000000000000e+00 6.1959999999999997e+00 ylo yhi
0.0000000000000000e+00 6.1959999999999997e+00 zlo zhi

Masses

1 1

Pair Coeffs # lj/cut

1 1 1

Atoms # atomic

11 1 0.0000000000000000e+00 0.0000000000000000e+00 0.0000000000000000e+00 0 0 0
61 1 0.0000000000000000e+00 7.7449999999999997e-01 7.7449999999999997e-01 0 0 0
171 1 7.7449999999999997e-01 0.0000000000000000e+00 7.7449999999999997e-01 0 0 0
238 1 7.7449999999999997e-01 7.7449999999999997e-01 0.0000000000000000e+00 0 0 0
99 1 1.5489999999999999e+00 7.7449999999999997e-01 7.7449999999999997e-01 0 0 0
113 1 2.3235000000000001e+00 0.0000000000000000e+00 7.7449999999999997e-01 0 0 0
138 1 1.5489999999999999e+00 0.0000000000000000e+00 0.0000000000000000e+00 0 0 0
211 1 2.3235000000000001e+00 7.7449999999999997e-01 0.0000000000000000e+00 0 0 0
1 1 3.0979999999999999e+00 7.7449999999999997e-01 7.7449999999999997e-01 0 0 0
67 1 3.8724999999999996e+00 7.7449999999999997e-01 0.0000000000000000e+00 0 0 0
91 1 3.0979999999999999e+00 0.0000000000000000e+00 0.0000000000000000e+00 0 0 0
92 1 3.8724999999999996e+00 0.0000000000000000e+00 7.7449999999999997e-01 0 0 0
8 1 5.4215000000000000e+00 7.7449999999999997e-01 0.0000000000000000e+00 0 0 0
25 1 4.6470000000000002e+00 7.7449999999999997e-01 7.7449999999999997e-01 0 0 0
58 1 4.6470000000000002e+00 0.0000000000000000e+00 0.0000000000000000e+00 0 0 0
154 1 5.4215000000000000e+00 0.0000000000000000e+00 7.7449999999999997e-01 0 0 0
43 1 7.7449999999999997e-01 1.5489999999999999e+00 7.7449999999999997e-01 0 0 0
46 1 7.7449999999999997e-01 2.3235000000000001e+00 0.0000000000000000e+00 0 0 0
168 1 0.0000000000000000e+00 2.3235000000000001e+00 7.7449999999999997e-01 0 0 0
169 1 0.0000000000000000e+00 1.5489999999999999e+00 0.0000000000000000e+00 0 0 0
94 1 1.5489999999999999e+00 2.3235000000000001e+00 7.7449999999999997e-01 0 0 0
109 1 2.3235000000000001e+00 2.3235000000000001e+00 0.0000000000000000e+00 0 0 0
115 1 2.3235000000000001e+00 1.5489999999999999e+00 7.7449999999999997e-01 0 0 0
212 1 1.5489999999999999e+00 1.5489999999999999e+00 0.0000000000000000e+00 0 0 0
7 1 3.8724999999999996e+00 2.3235000000000001e+00 0.0000000000000000e+00 0 0 0
47 1 3.8724999999999996e+00 1.5489999999999999e+00 7.7449999999999997e-01 0 0 0
153 1 3.0979999999999999e+00 1.5489999999999999e+00 0.0000000000000000e+00 0 0 0
231 1 3.0979999999999999e+00 2.3235000000000001e+00 7.7449999999999997e-01 0 0 0
4 1 5.4215000000000000e+00 2.3235000000000001e+00 0.0000000000000000e+00 0 0 0
57 1 4.6470000000000002e+00 1.5489999999999999e+00 0.0000000000000000e+00 0 0 0
148 1 4.6470000000000002e+00 2.3235000000000001e+00 7.7449999999999997e-01 0 0 0
174 1 5.4215000000000000e+00 1.5489999999999999e+00 7.7449999999999997e-01 0 0 0
116 1 0.0000000000000000e+00 3.8724999999999996e+00 7.7449999999999997e-01 0 0 0
117 1 0.0000000000000000e+00 3.0979999999999999e+00 0.0000000000000000e+00 0 0 0
177 1 7.7449999999999997e-01 3.8724999999999996e+00 0.0000000000000000e+00 0 0 0
210 1 7.7449999999999997e-01 3.0979999999999999e+00 7.7449999999999997e-01 0 0 0
10 1 1.5489999999999999e+00 3.8724999999999996e+00 7.7449999999999997e-01 0 0 0
39 1 2.3235000000000001e+00 3.0979999999999999e+00 7.7449999999999997e-01 0 0 0
76 1 1.5489999999999999e+00 3.0979999999999999e+00 0.0000000000000000e+00 0 0 0
191 1 2.3235000000000001e+00 3.8724999999999996e+00 0.0000000000000000e+00 0 0 0
15 1 3.8724999999999996e+00 3.8724999999999996e+00 0.0000000000000000e+00 0 0 0
30 1 3.8724999999999996e+00 3.0979999999999999e+00 7.7449999999999997e-01 0 0 0
120 1 3.0979999999999999e+00 3.0979999999999999e+00 0.0000000000000000e+00 0 0 0
155 1 3.0979999999999999e+00 3.8724999999999996e+00 7.7449999999999997e-01 0 0 0
2 1 4.6470000000000002e+00 3.8724999999999996e+00 7.7449999999999997e-01 0 0 0
118 1 5.4215000000000000e+00 3.0979999999999999e+00 7.7449999999999997e-01 0 0 0
165 1 4.6470000000000002e+00 3.0979999999999999e+00 0.0000000000000000e+00 0 0 0
184 1 5.4215000000000000e+00 3.8724999999999996e+00 0.0000000000000000e+00 0 0 0
72 1 0.0000000000000000e+00 5.4215000000000000e+00 7.7449999999999997e-01 0 0 0
80 1 0.0000000000000000e+00 4.6470000000000002e+00 0.0000000000000000e+00 0 0 0
132 1 7.7449999999999997e-01 5.4215000000000000e+00 0.0000000000000000e+00 0 0 0
157 1 7.7449999999999997e-01 4.6470000000000002e+00 7.7449999999999997e-01 0 0 0
6 1 1.5489999999999999e+00 5.4215000000000000e+00 7.7449999999999997e-01 0 0 0
38 1 2.3235000000000001e+00 5.4215000000000000e+00 0.0000000000000000e+00 0 0 0
50 1 1.5489999999999999e+00 4.6470000000000002e+00 0.0000000000000000e+00 0 0 0
180 1 2.3235000000000001e+00 4.6470000000000002e+00 7.7449999999999997e-01 0 0 0
27 1 3.0979999999999999e+00 5.4215000000000000e+00 7.7449999999999997e-01 0 0 0
90 1 3.8724999999999996e+00 4.6470000000000002e+00 7.7449999999999997e-01 0 0 0
100 1 3.8724999999999996e+00 5.4215000000000000e+00 0.0000000000000000e+00 0 0 0
219 1 3.0979999999999999e+00 4.6470000000000002e+00 0.0000000000000000e+00 0 0 0
52 1 4.6470000000000002e+00 4.6470000000000002e+00 0.0000000000000000e+00 0 0 0
82 1 4.6470000000000002e+00 5.4215000000000000e+00 7.7449999999999997e-01 0 0 0
193 1 5.4215000000000000e+00 4.6470000000000002e+00 7.7449999999999997e-01 0 0 0
202 1 5.4215000000000000e+00 5.4215000000000000e+00 0.0000000000000000e+00 0 0 0
44 1 7.7449999999999997e-01 0.0000000000000000e+00 2.3235000000000001e+00 0 0 0
204 1 0.0000000000000000e+00 0.0000000000000000e+00 1.5489999999999999e+00 0 0 0
213 1 7.7449999999999997e-01 7.7449999999999997e-01 1.5489999999999999e+00 0 0 0
252 1 0.0000000000000000e+00 7.7449999999999997e-01 2.3235000000000001e+00 0 0 0
21 1 1.5489999999999999e+00 7.7449999999999997e-01 2.3235000000000001e+00 0 0 0
71 1 2.3235000000000001e+00 7.7449999999999997e-01 1.5489999999999999e+00 0 0 0
110 1 2.3235000000000001e+00 0.0000000000000000e+00 2.3235000000000001e+00 0 0 0
190 1 1.5489999999999999e+00 0.0000000000000000e+00 1.5489999999999999e+00 0 0 0
18 1 3.8724999999999996e+00 0.0000000000000000e+00 2.3235000000000001e+00 0 0 0
112 1 3.8724999999999996e+00 7.7449999999999997e-01 1.5489999999999999e+00 0 0 0
205 1 3.0979999999999999e+00 0.0000000000000000e+00 1.5489999999999999e+00 0 0 0
227 1 3.0979999999999999e+00 7.7449999999999997e-01 2.3235000000000001e+00 0 0 0
28 1 5.4215000000000000e+00 7.7449999999999997e-01 1.5489999999999999e+00 0 0 0
98 1 4.6470000000000002e+00 0.0000000000000000e+00 1.5489999999999999e+00 0 0 0
107 1 5.4215000000000000e+00 0.0000000000000000e+00 2.3235000000000001e+00 0 0 0
151 1 4.6470000000000002e+00 7.7449999999999997e-01 2.3235000000000001e+00 0 0 0
105 1 0.0000000000000000e+00 1.5489999999999999e+00 1.5489999999999999e+00 0 0 0
196 1 7.7449999999999997e-01 2.3235000000000001e+00 1.5489999999999999e+00 0 0 0
200 1 0.0000000000000000e+00 2.3235000000000001e+00 2.3235000000000001e+00 0 0 0
244 1 7.7449999999999997e-01 1.5489999999999999e+00 2.3235000000000001e+00 0 0 0
86 1 2.3235000000000001e+00 2.3235000000000001e+00 1.5489999999999999e+00 0 0 0
101 1 1.5489999999999999e+00 2.3235000000000001e+00 2.3235000000000001e+00 0 0 0
233 1 1.5489999999999999e+00 1.5489999999999999e+00 1.5489999999999999e+00 0 0 0
234 1 2.3235000000000001e+00 1.5489999999999999e+00 2.3235000000000001e+00 0 0 0
14 1 3.0979999999999999e+00 1.5489999999999999e+00 1.5489999999999999e+00 0 0 0
65 1 3.8724999999999996e+00 2.3235000000000001e+00 1.5489999999999999e+00 0 0 0
74 1 3.0979999999999999e+00 2.3235000000000001e+00 2.3235000000000001e+00 0 0 0
240 1 3.8724999999999996e+00 1.5489999999999999e+00 2.3235000000000001e+00 0 0 0
23 1 5.4215000000000000e+00 2.3235000000000001e+00 1.5489999999999999e+00 0 0 0
97 1 4.6470000000000002e+00 2.3235000000000001e+00 2.3235000000000001e+00 0 0 0
126 1 5.4215000000000000e+00 1.5489999999999999e+00 2.3235000000000001e+00 0 0 0
175 1 4.6470000000000002e+00 1.5489999999999999e+00 1.5489999999999999e+00 0 0 0
24 1 0.0000000000000000e+00 3.8724999999999996e+00 2.3235000000000001e+00 0 0 0
34 1 7.7449999999999997e-01 3.0979999999999999e+00 2.3235000000000001e+00 0 0 0
42 1 0.0000000000000000e+00 3.0979999999999999e+00 1.5489999999999999e+00 0 0 0
95 1 7.7449999999999997e-01 3.8724999999999996e+00 1.5489999999999999e+00 0 0 0
48 1 2.3235000000000001e+00 3.8724999999999996e+00 1.5489999999999999e+00 0 0 0
135 1 2.3235000000000001e+00 3.0979999999999999e+00 2.3235000000000001e+00 0 0 0
242 1 1.5489999999999999e+00 3.8724999999999996e+00 2.3235000000000001e+00 0 0 0
248 1 1.5489999999999999e+00 3.0979999999999999e+00 1.5489999999999999e+00 0 0 0
121 1 3.8724999999999996e+00 3.0979999999999999e+00 2.3235000000000001e+00 0 0 0
158 1 3.8724999999999996e+00 3.8724999999999996e+00 1.5489999999999999e+00 0 0 0
192 1 3.0979999999999999e+00 3.0979999999999999e+00 1.5489999999999999e+00 0 0 0
207 1 3.0979999999999999e+00 3.8724999999999996e+00 2.3235000000000001e+00 0 0 0
103 1 4.6470000000000002e+00 3.8724999999999996e+00 2.3235000000000001e+00 0 0 0
129 1 4.6470000000000002e+00 3.0979999999999999e+00 1.5489999999999999e+00 0 0 0
137 1 5.4215000000000000e+00 3.8724999999999996e+00 1.5489999999999999e+00 0 0 0
146 1 5.4215000000000000e+00 3.0979999999999999e+00 2.3235000000000001e+00 0 0 0
64 1 7.7449999999999997e-01 4.6470000000000002e+00 2.3235000000000001e+00 0 0 0
102 1 7.7449999999999997e-01 5.4215000000000000e+00 1.5489999999999999e+00 0 0 0
142 1 0.0000000000000000e+00 5.4215000000000000e+00 2.3235000000000001e+00 0 0 0
222 1 0.0000000000000000e+00 4.6470000000000002e+00 1.5489999999999999e+00 0 0 0
35 1 1.5489999999999999e+00 4.6470000000000002e+00 1.5489999999999999e+00 0 0 0
49 1 2.3235000000000001e+00 4.6470000000000002e+00 2.3235000000000001e+00 0 0 0
62 1 2.3235000000000001e+00 5.4215000000000000e+00 1.5489999999999999e+00 0 0 0
63 1 1.5489999999999999e+00 5.4215000000000000e+00 2.3235000000000001e+00 0 0 0
13 1 3.8724999999999996e+00 4.6470000000000002e+00 2.3235000000000001e+00 0 0 0
31 1 3.0979999999999999e+00 4.6470000000000002e+00 1.5489999999999999e+00 0 0 0
59 1 3.8724999999999996e+00 5.4215000000000000e+00 1.5489999999999999e+00 0 0 0
221 1 3.0979999999999999e+00 5.4215000000000000e+00 2.3235000000000001e+00 0 0 0
32 1 4.6470000000000002e+00 4.6470000000000002e+00 1.5489999999999999e+00 0 0 0
104 1 5.4215000000000000e+00 4.6470000000000002e+00 2.3235000000000001e+00 0 0 0
131 1 4.6470000000000002e+00 5.4215000000000000e+00 2.3235000000000001e+00 0 0 0
150 1 5.4215000000000000e+00 5.4215000000000000e+00 1.5489999999999999e+00 0 0 0
51 1 7.7449999999999997e-01 0.0000000000000000e+00 3.8724999999999996e+00 0 0 0
152 1 7.7449999999999997e-01 7.7449999999999997e-01 3.0979999999999999e+00 0 0 0
187 1 0.0000000000000000e+00 7.7449999999999997e-01 3.8724999999999996e+00 0 0 0
230 1 0.0000000000000000e+00 0.0000000000000000e+00 3.0979999999999999e+00 0 0 0
26 1 2.3235000000000001e+00 7.7449999999999997e-01 3.0979999999999999e+00 0 0 0
41 1 1.5489999999999999e+00 0.0000000000000000e+00 3.0979999999999999e+00 0 0 0
159 1 2.3235000000000001e+00 0.0000000000000000e+00 3.8724999999999996e+00 0 0 0
235 1 1.5489999999999999e+00 7.7449999999999997e-01 3.8724999999999996e+00 0 0 0
185 1 3.8724999999999996e+00 7.7449999999999997e-01 3.0979999999999999e+00 0 0 0
189 1 3.0979999999999999e+00 7.7449999999999997e-01 3.8724999999999996e+00 0 0 0
223 1 3.8724999999999996e+00 0.0000000000000000e+00 3.8724999999999996e+00 0 0 0
229 1 3.0979999999999999e+00 0.0000000000000000e+00 3.0979999999999999e+00 0 0 0
139 1 5.4215000000000000e+00 7.7449999999999997e-01 3.0979999999999999e+00 0 0 0
164 1 4.6470000000000002e+00 7.7449999999999997e-01 3.8724999999999996e+00 0 0 0
181 1 5.4215000000000000e+00 0.0000000000000000e+00 3.8724999999999996e+00 0 0 0
250 1 4.6470000000000002e+00 0.0000000000000000e+00 3.0979999999999999e+00 0 0 0
66 1 0.0000000000000000e+00 1.5489999999999999e+00 3.0979999999999999e+00 0 0 0
79 1 7.7449999999999997e-01 2.3235000000000001e+00 3.0979999999999999e+00 0 0 0
172 1 0.0000000000000000e+00 2.3235000000000001e+00 3.8724999999999996e+00 0 0 0
214 1 7.7449999999999997e-01 1.5489999999999999e+00 3.8724999999999996e+00 0 0 0
20 1 2.3235000000000001e+00 1.5489999999999999e+00 3.8724999999999996e+00 0 0 0
122 1 2.3235000000000001e+00 2.3235000000000001e+00 3.0979999999999999e+00 0 0 0
149 1 1.5489999999999999e+00 1.5489999999999999e+00 3.0979999999999999e+00 0 0 0
166 1 1.5489999999999999e+00 2.3235000000000001e+00 3.8724999999999996e+00 0 0 0
45 1 3.0979999999999999e+00 1.5489999999999999e+00 3.0979999999999999e+00 0 0 0
83 1 3.8724999999999996e+00 2.3235000000000001e+00 3.0979999999999999e+00 0 0 0
85 1 3.0979999999999999e+00 2.3235000000000001e+00 3.8724999999999996e+00 0 0 0
114 1 3.8724999999999996e+00 1.5489999999999999e+00 3.8724999999999996e+00 0 0 0
5 1 4.6470000000000002e+00 2.3235000000000001e+00 3.8724999999999996e+00 0 0 0
77 1 5.4215000000000000e+00 1.5489999999999999e+00 3.8724999999999996e+00 0 0 0
108 1 4.6470000000000002e+00 1.5489999999999999e+00 3.0979999999999999e+00 0 0 0
170 1 5.4215000000000000e+00 2.3235000000000001e+00 3.0979999999999999e+00 0 0 0
16 1 7.7449999999999997e-01 3.0979999999999999e+00 3.8724999999999996e+00 0 0 0
89 1 0.0000000000000000e+00 3.0979999999999999e+00 3.0979999999999999e+00 0 0 0
160 1 0.0000000000000000e+00 3.8724999999999996e+00 3.8724999999999996e+00 0 0 0
237 1 7.7449999999999997e-01 3.8724999999999996e+00 3.0979999999999999e+00 0 0 0
60 1 2.3235000000000001e+00 3.0979999999999999e+00 3.8724999999999996e+00 0 0 0
87 1 1.5489999999999999e+00 3.0979999999999999e+00 3.0979999999999999e+00 0 0 0
173 1 2.3235000000000001e+00 3.8724999999999996e+00 3.0979999999999999e+00 0 0 0
249 1 1.5489999999999999e+00 3.8724999999999996e+00 3.8724999999999996e+00 0 0 0
81 1 3.8724999999999996e+00 3.0979999999999999e+00 3.8724999999999996e+00 0 0 0
162 1 3.8724999999999996e+00 3.8724999999999996e+00 3.0979999999999999e+00 0 0 0
183 1 3.0979999999999999e+00 3.8724999999999996e+00 3.8724999999999996e+00 0 0 0
188 1 3.0979999999999999e+00 3.0979999999999999e+00 3.0979999999999999e+00 0 0 0
12 1 4.6470000000000002e+00 3.8724999999999996e+00 3.8724999999999996e+00 0 0 0
68 1 4.6470000000000002e+00 3.0979999999999999e+00 3.0979999999999999e+00 0 0 0
195 1 5.4215000000000000e+00 3.0979999999999999e+00 3.8724999999999996e+00 0 0 0
226 1 5.4215000000000000e+00 3.8724999999999996e+00 3.0979999999999999e+00 0 0 0
70 1 0.0000000000000000e+00 4.6470000000000002e+00 3.0979999999999999e+00 0 0 0
141 1 0.0000000000000000e+00 5.4215000000000000e+00 3.8724999999999996e+00 0 0 0
179 1 7.7449999999999997e-01 5.4215000000000000e+00 3.0979999999999999e+00 0 0 0
209 1 7.7449999999999997e-01 4.6470000000000002e+00 3.8724999999999996e+00 0 0 0
119 1 1.5489999999999999e+00 4.6470000000000002e+00 3.0979999999999999e+00 0 0 0
128 1 1.5489999999999999e+00 5.4215000000000000e+00 3.8724999999999996e+00 0 0 0
217 1 2.3235000000000001e+00 4.6470000000000002e+00 3.8724999999999996e+00 0 0 0
251 1 2.3235000000000001e+00 5.4215000000000000e+00 3.0979999999999999e+00 0 0 0
9 1 3.0979999999999999e+00 4.6470000000000002e+00 3.0979999999999999e+00 0 0 0
106 1 3.0979999999999999e+00 5.4215000000000000e+00 3.8724999999999996e+00 0 0 0
133 1 3.8724999999999996e+00 5.4215000000000000e+00 3.0979999999999999e+00 0 0 0
182 1 3.8724999999999996e+00 4.6470000000000002e+00 3.8724999999999996e+00 0 0 0
29 1 4.6470000000000002e+00 5.4215000000000000e+00 3.8724999999999996e+00 0 0 0
54 1 5.4215000000000000e+00 4.6470000000000002e+00 3.8724999999999996e+00 0 0 0
73 1 4.6470000000000002e+00 4.6470000000000002e+00 3.0979999999999999e+00 0 0 0
224 1 5.4215000000000000e+00 5.4215000000000000e+00 3.0979999999999999e+00 0 0 0
33 1 7.7449999999999997e-01 0.0000000000000000e+00 5.4215000000000000e+00 0 0 0
123 1 0.0000000000000000e+00 0.0000000000000000e+00 4.6470000000000002e+00 0 0 0
136 1 0.0000000000000000e+00 7.7449999999999997e-01 5.4215000000000000e+00 0 0 0
236 1 7.7449999999999997e-01 7.7449999999999997e-01 4.6470000000000002e+00 0 0 0
36 1 2.3235000000000001e+00 7.7449999999999997e-01 4.6470000000000002e+00 0 0 0
93 1 2.3235000000000001e+00 0.0000000000000000e+00 5.4215000000000000e+00 0 0 0
143 1 1.5489999999999999e+00 7.7449999999999997e-01 5.4215000000000000e+00 0 0 0
197 1 1.5489999999999999e+00 0.0000000000000000e+00 4.6470000000000002e+00 0 0 0
3 1 3.8724999999999996e+00 7.7449999999999997e-01 4.6470000000000002e+00 0 0 0
37 1 3.8724999999999996e+00 0.0000000000000000e+00 5.4215000000000000e+00 0 0 0
130 1 3.0979999999999999e+00 7.7449999999999997e-01 5.4215000000000000e+00 0 0 0
199 1 3.0979999999999999e+00 0.0000000000000000e+00 4.6470000000000002e+00 0 0 0
167 1 4.6470000000000002e+00 0.0000000000000000e+00 4.6470000000000002e+00 0 0 0
201 1 5.4215000000000000e+00 0.0000000000000000e+00 5.4215000000000000e+00 0 0 0
208 1 5.4215000000000000e+00 7.7449999999999997e-01 4.6470000000000002e+00 0 0 0
239 1 4.6470000000000002e+00 7.7449999999999997e-01 5.4215000000000000e+00 0 0 0
147 1 0.0000000000000000e+00 1.5489999999999999e+00 4.6470000000000002e+00 0 0 0
156 1 7.7449999999999997e-01 1.5489999999999999e+00 5.4215000000000000e+00 0 0 0
245 1 7.7449999999999997e-01 2.3235000000000001e+00 4.6470000000000002e+00 0 0 0
247 1 0.0000000000000000e+00 2.3235000000000001e+00 5.4215000000000000e+00 0 0 0
56 1 1.5489999999999999e+00 1.5489999999999999e+00 4.6470000000000002e+00 0 0 0
88 1 2.3235000000000001e+00 1.5489999999999999e+00 5.4215000000000000e+00 0 0 0
218 1 2.3235000000000001e+00 2.3235000000000001e+00 4.6470000000000002e+00 0 0 0
228 1 1.5489999999999999e+00 2.3235000000000001e+00 5.4215000000000000e+00 0 0 0
69 1 3.0979999999999999e+00 2.3235000000000001e+00 5.4215000000000000e+00 0 0 0
78 1 3.8724999999999996e+00 2.3235000000000001e+00 4.6470000000000002e+00 0 0 0
134 1 3.0979999999999999e+00 1.5489999999999999e+00 4.6470000000000002e+00 0 0 0
144 1 3.8724999999999996e+00 1.5489999999999999e+00 5.4215000000000000e+00 0 0 0
53 1 4.6470000000000002e+00 1.5489999999999999e+00 4.6470000000000002e+00 0 0 0
124 1 5.4215000000000000e+00 1.5489999999999999e+00 5.4215000000000000e+00 0 0 0
145 1 4.6470000000000002e+00 2.3235000000000001e+00 5.4215000000000000e+00 0 0 0
215 1 5.4215000000000000e+00 2.3235000000000001e+00 4.6470000000000002e+00 0 0 0
75 1 0.0000000000000000e+00 3.0979999999999999e+00 4.6470000000000002e+00 0 0 0
161 1 7.7449999999999997e-01 3.8724999999999996e+00 4.6470000000000002e+00 0 0 0
243 1 0.0000000000000000e+00 3.8724999999999996e+00 5.4215000000000000e+00 0 0 0
254 1 7.7449999999999997e-01 3.0979999999999999e+00 5.4215000000000000e+00 0 0 0
17 1 2.3235000000000001e+00 3.0979999999999999e+00 5.4215000000000000e+00 0 0 0
19 1 2.3235000000000001e+00 3.8724999999999996e+00 4.6470000000000002e+00 0 0 0
40 1 1.5489999999999999e+00 3.0979999999999999e+00 4.6470000000000002e+00 0 0 0
163 1 1.5489999999999999e+00 3.8724999999999996e+00 5.4215000000000000e+00 0 0 0
55 1 3.8724999999999996e+00 3.0979999999999999e+00 5.4215000000000000e+00 0 0 0
84 1 3.0979999999999999e+00 3.0979999999999999e+00 4.6470000000000002e+00 0 0 0
194 1 3.8724999999999996e+00 3.8724999999999996e+00 4.6470000000000002e+00 0 0 0
246 1 3.0979999999999999e+00 3.8724999999999996e+00 5.4215000000000000e+00 0 0 0
111 1 4.6470000000000002e+00 3.8724999999999996e+00 5.4215000000000000e+00 0 0 0
198 1 5.4215000000000000e+00 3.8724999999999996e+00 4.6470000000000002e+00 0 0 0
216 1 4.6470000000000002e+00 3.0979999999999999e+00 4.6470000000000002e+00 0 0 0
253 1 5.4215000000000000e+00 3.0979999999999999e+00 5.4215000000000000e+00 0 0 0
96 1 7.7449999999999997e-01 5.4215000000000000e+00 4.6470000000000002e+00 0 0 0
127 1 0.0000000000000000e+00 5.4215000000000000e+00 5.4215000000000000e+00 0 0 0
203 1 7.7449999999999997e-01 4.6470000000000002e+00 5.4215000000000000e+00 0 0 0
232 1 0.0000000000000000e+00 4.6470000000000002e+00 4.6470000000000002e+00 0 0 0
140 1 1.5489999999999999e+00 4.6470000000000002e+00 4.6470000000000002e+00 0 0 0
178 1 1.5489999999999999e+00 5.4215000000000000e+00 5.4215000000000000e+00 0 0 0
225 1 2.3235000000000001e+00 5.4215000000000000e+00 4.6470000000000002e+00 0 0 0
241 1 2.3235000000000001e+00 4.6470000000000002e+00 5.4215000000000000e+00 0 0 0
22 1 3.0979999999999999e+00 4.6470000000000002e+00 4.6470000000000002e+00 0 0 0
220 1 3.8724999999999996e+00 4.6470000000000002e+00 5.4215000000000000e+00 0 0 0
255 1 3.8724999999999996e+00 5.4215000000000000e+00 4.6470000000000002e+00 0 0 0
256 1 3.0979999999999999e+00 5.4215000000000000e+00 5.4215000000000000e+00 0 0 0
125 1 5.4215000000000000e+00 4.6470000000000002e+00 5.4215000000000000e+00 0 0 0
176 1 5.4215000000000000e+00 5.4215000000000000e+00 4.6470000000000002e+00 0 0 0
186 1 4.6470000000000002e+00 5.4215000000000000e+00 5.4215000000000000e+00 0 0 0
206 1 4.6470000000000002e+00 4.6470000000000002e+00 4.6470000000000002e+00 0 0 0

Velocities

11 2.4683484881859871e-01 9.1634739102753771e-02 3.8703368615491146e-01
61 -4.1446067437192780e-01 7.6809885978955217e-02 -1.2564533767142275e-01
171 -2.6332394554979842e-02 -4.5571082398843377e-01 3.2244991444646670e-01
238 -2.6562095476088475e-02 -4.3389191626934387e-05 -2.7483021039737893e-01
99 4.5665637494751365e-01 -4.2659217632457724e-01 -1.4915237817835150e-01
113 -1.4054867312795452e-01 2.8775782913096293e-01 4.0550823712557965e-01
138 -1.4886374879737532e-01 3.7175349883054798e-01 2.9447760526996619e-01
211 -9.4291204356392738e-02 2.7555891489800266e-01 -6.6723656084262270e-02
1 -3.3364005703704736e-01 -6.5433276463549794e-02 -3.2719293871221294e-01
67 -1.3844060416359086e-01 -8.4195777416373740e-02 -5.8133517084403875e-02
91 -3.6563446867510130e-01 -1.0028926162814444e-01 1.5520753698843479e-01
92 8.8822007163468414e-02 -1.7610130884667952e-01 2.1507540035589021e-01
8 -1.0197846403311031e-01 3.2206109113277703e-01 -2.1679776423844424e-01
25 -4.0215685997377970e-01 -3.3372029401658021e-01 -3.9725610660563121e-01
58 4.0696899864056460e-03 -2.5863215577446563e-01 8.4068591039853605e-02
154 -1.1090074284241572e-01 -1.6121125061147679e-01 2.5649644908706214e-02
43 5.0357160877112818e-02 4.6007140370582411e-01 -2.2018055097366443e-01
46 -2.1271615770663853e-02 3.7300794789979674e-01 2.5196101639888041e-01
168 -1.1257705367231399e-01 -3.8999736497400483e-01 2.9166841739742561e-01
169 -3.5945119022895189e-01 3.4761617173265569e-01 -4.6454042598451574e-02
94 -5.0364417477549828e-01 -1.5003552687302246e-01 4.7508745392983970e-01
109 2.4467420264068482e-01 2.2870866037178550e-01 -3.1386228396594346e-01
115 1.5733534200947838e-01 -1.1152404713177333e-01 4.0654795428194244e-02
212 -2.5996780288205146e-01 1.6542903050905000e-01 -1.6870617321525619e-01
7 3.1682738732466154e-01 -2.2636489426710737e-01 -7.7383864987326564e-02
47 -6.7220340221269353e-02 4.3576275911846452e-01 3.7344411154804545e-02
153 -4.9471559305093427e-01 2.0143652933085399e-01 -3.9563239317559834e-01
231 4.1723003985623552e-01 2.6232730953198802e-01 3.7902509361584863e-01
4 -2.3068451756855482e-01 1.8887513727236338e-01 2.6808712157597242e-01
57 -3.2863556567296892e-01 2.0665563907192053e-01 4.9527989867530425e-01
148 -5.0651546714499562e-01 6.5456365127666061e-02 2.4600798211478367e-01
174 -3.6193802483662307e-01 -6.0642556180549916e-02 3.0623590523635397e-01
116 1.1509442722915672e-01 1.2713663216612603e-01 3.3223063493958921e-01
117 1.5856820624152854e-01 2.1838961527924183e-01 2.2368800836298083e-01
177 4.5279560879041292e-01 4.8887028447434899e-01 3.4823356959186885e-01
210 3.8714727526417236e-01 1.3049039853785782e-01 1.8437292661398449e-01
10 -3.3326579042730475e-01 -4.2016921127628115e-01 2.2349397322257689e-01
39 3.5204563810897471e-01 -1.5993675892967178e-02 -2.1208602451806148e-02
76 4.3678072876074181e-01 2.7863416806062025e-01 -4.3292094891844374e-01
191 1.4581827126571065e-01 4.4719413547123654e-01 -3.3811292498550599e-01
15 -5.0611930105048962e-02 4.0042201409621025e-01 7.3735126119467378e-02
30 2.9726502902905561e-01 3.5306419451279147e-01 -2.8314649755808935e-01
120 1.3522204594058582e-01 2.9316798482391149e-01 4.4275004125986911e-01
155 2.9431855330220824e-01 -1.2957006989615905e-01 -2.4136715259673860e-01
2 -4.5273021365476285e-01 1.3371728540392658e-01 4.0670230228413279e-01
118 -3.3664059051522821e-01 -5.6728013893568401e-02 1.3284644694078238e-01
165 -1.5071258533239110e-01 5.0986245086940307e-01 4.3283460178580407e-01
184 3.2183597115204088e-01 -4.2012554302029237e-01 -1.1187014894981633e-01
72 -2.9188036053063593e-01 1.8235364417545037e-02 -4.9920463094280959e-01
80 1.8902205380300505e-01 -4.5610976014210614e-01 -4.5000188037337124e-01
132 -2.0475356266043956e-01 -3.9412495620357701e-01 -4.4226433947489602e-01
157 2.3852541482822739e-01 -3.7365454063441306e-01 3.0210713224860269e-01
6 -1.2227496154958087e-01 -2.9713462966124357e-03 1.1845396222884393e-01
38 2.6541919119278967e-01 -2.6418334167060231e-01 -2.2698833530738308e-01
50 4.2925542243135495e-01 8.9255188394504414e-02 2.1775667781236249e-01
180 -3.0491556013895360e-01 2.4610193447714923e-01 -2.8991588987522693e-01
27 -2.6609372468066259e-03 9.9104592094824140e-02 1.2003593299538227e-02
90 1.9991868518740072e-01 -1.6620117628279729e-01 -1.1961065868712221e-01
100 -4.4471219927880423e-01 1.6407033882761886e-02 -4.3716833801922356e-01
219 5.7954037922725112e-02 4.1185006318658346e-01 4.7157507338538601e-01
52 -2.8399936461028852e-01 -1.1383829647074251e-01 -4.6357474844102481e-01
82 -4.8938933766626802e-01 -2.5777433930129046e-01 4.2419508449884674e-01
193 -2.2907302118508746e-01 -2.2586307904580594e-01 -3.8154595530248531e-01
202 2.2378235340021022e-01 2.6801627725239204e-02 3.6591982275520057e-01
44 3.1112995324206838e-01 -1.4557839832760910e-01 2.8925533368214756e-01
204 2.8414680561287953e-01 -3.1064208964881290e-01 -1.9922636321976064e-01
213 3.6405688128324100e-02 1.9185081572389884e-01 8.7107875570470575e-02
252 -4.5191858205704771e-01 -4.1714585239192514e-01 -3.8811241950285186e-01
21 1.3827599942265165e-01 7.6183194145166944e-02 1.5468661740322429e-01
71 3.6348415585182525e-01 2.5623243353907317e-02 1.9438492201987331e-01
110 4.5009499255460439e-01 -1.3040753619164895e-02 2.6477988884078490e-01
190 -2.1571676168557055e-01 1.1727100462564499e-01 4.3068549317063659e-01
18 2.5168614258958866e-01 -3.6720613573456085e-01 -3.4779715301104813e-01
112 2.9390586620392112e-01 4.2297102765731509e-01 2.6126938706209940e-01
205 3.2539219443443158e-02 -2.6511279876639449e-01 -1.8610491339244831e-01
227 -1.0355279731660796e-01 -2.0195242413752268e-01 -4.2756033028752422e-01
28 -1.5609411607534532e-01 -3.0878789707739163e-01 1.7667793531885409e-01
98 -1.7802782400202202e-01 1.7125416926660764e-01 -3.5993161942444091e-01
107 4.3702660441526564e-01 1.5108141364704830e-01 2.2730622086231086e-01
151 6.9171527365791768e-02 -8.6962378172114385e-02 2.5678136002589552e-01
105 1.8787275103022458e-01 1.2931323179239507e-01 2.9332330824465319e-01
196 1.0700361086115481e-01 -2.5341605557815106e-01 4.2947868295051955e-01
200 2.0721478670915247e-01 -3.9228893293001366e-01 3.7070157680619203e-01
244 2.0057898919848391e-01 4.7820591046057803e-01 -3.7995454157651359e-01
86 1.0256708735420048e-01 3.4718638624263987e-01 2.9978434467481235e-01
101 -4.5425619810801587e-01 -3.4899664942765773e-01 -1.8202548452792236e-01
233 3.8529488034476755e-01 1.6204694490475909e-02 -3.8058880224681996e-01
234 3.9888104631583232e-01 2.2869066523015280e-01 -3.9994167354000737e-01
14 3.6255649723688244e-01 -2.5978117140164174e-02 2.7817371295770837e-01
65 -2.2592768324754611e-01 -4.1877944887093888e-01 -1.3702443437289338e-01
74 4.4067803295761410e-01 2.1237924279406240e-01 -2.2595428020941447e-01
240 -4.9313818203774251e-01 7.2663852669241427e-03 -4.1925799012134241e-01
23 -6.7096863450804373e-02 4.7979447657340753e-02 -3.4419556490017827e-01
97 -1.2118121313499211e-01 -5.4960195124177817e-02 -9.7939583431631935e-02
126 -3.3372408527370179e-01 -1.2203824234103577e-01 -3.7524544117855269e-01
175 4.4258427647896459e-01 -5.6246832639741610e-02 4.7234195410800034e-01
24 -4.3420350595236146e-01 1.8760981113649333e-01 -1.3644942618591552e-01
34 -1.8075751488723105e-01 3.9109511863834745e-01 8.2375200383675143e-02
42 -1.6321698288419653e-01 2.7311256381908244e-01 -3.6647629617465710e-01
95 -5.0048878668818342e-01 2.0881315189305305e-01 -1.1511476039304684e-01
48 3.0487303980150826e-01 -7.8940917048655398e-03 -3.4095776629966418e-01
135 4.4569049110370595e-01 3.4561849957123088e-02 -2.6666259338028592e-01
242 -2.2829934195989190e-01 -3.7906579576730692e-01 -7.7208628564985693e-03
248 -3.4790910069379311e-01 -1.7354759385135887e-01 -6.2018559630109528e-02
121 2.9327034564259857e-01 -4.2103737671022756e-01 -2.6179824743672947e-01
158 4.4677690500591206e-02 3.0422524505547965e-01 -4.7342455575316050e-01
192 7.3022419430732038e-02 1.0709574081713069e-01 -4.6130774706740790e-01
207 1.8624231144695322e-01 -3.4340363276590395e-02 -2.8294610195133719e-02
103 4.7922444954289524e-02 -1.9393624739894155e-01 7.8326755190777100e-02
129 -4.0622240603631998e-01 3.3003449434105780e-01 8.5926851447219080e-02
137 1.2766889580956266e-02 -1.6330040168542526e-01 4.9700253577695891e-01
146 6.0023068965658101e-02 3.6526208648697052e-02 -2.9414428759281935e-01
64 -2.5786232082227534e-01 -1.6672607973593256e-01 8.9172982079633048e-02
102 -1.6861216057836939e-01 4.1352170768940311e-01 -2.6764942314040435e-01
142 3.3435935894058399e-01 -3.3177014643334513e-01 2.9131598990474544e-01
222 2.7209810734335771e-01 -3.5203476559893754e-01 -2.6691011993499364e-01
35 3.4228541877629093e-01 -1.1542565845630137e-01 3.0373650960274162e-01
49 -3.1813719576466748e-01 -1.7288740056076124e-01 4.3183507305721874e-01
62 -1.8739178997457398e-01 -1.3858185631930064e-01 -2.9765254579778649e-01
63 4.1298134877193315e-01 3.3681924154505688e-04 -4.0737437490196809e-01
13 -1.8031439168076971e-01 2.9833265199236714e-01 -3.9345234270329527e-01
31 -4.8522162654304579e-01 -4.1519236055220587e-01 -3.5842939201574625e-01