LAMMPS data file via write_data, version 28 Jun 2014, timestep = 25000

22 atoms
1 atom types

-10.0000000000000000e+00 15.0000000000000000e+00 xlo xhi
-7.5000000000000000e+00 7.5000000000000000e+00 ylo yhi
-5.0000000000000000e-01 5.0000000000000000e-01 zlo zhi

Atoms # sphere

1 1 0.5 1.0000000000000000e+00 -5.0 0.0 0.0000000000000000e+00 0 0 0
2 1 0.5 1.0000000000000000e+00 10.0 0.0 0.0000000000000000e+00 0 0 0
3 1 0.5 1.0000000000000000e+00 10.43330 0.25000 0.0000000000000000e+00 0 0 0
4 1 0.5 1.0000000000000000e+00 10.43330 -0.25000 0.0000000000000000e+00 0 0 0
5 1 0.5 1.0000000000000000e+00 10.86660 0.50000 0.0000000000000000e+00 0 0 0
6 1 0.5 1.0000000000000000e+00 10.86660 0.000000 0.0000000000000000e+00 0 0 0
7 1 0.5 1.0000000000000000e+00 10.86660 -0.50000 0.0000000000000000e+00 0 0 0
8 1 0.5 1.0000000000000000e+00 11.29990 0.75000 0.0000000000000000e+00 0 0 0
9 1 0.5 1.0000000000000000e+00 11.29990 0.25000 0.0000000000000000e+00 0 0 0
10 1 0.5 1.0000000000000000e+00 11.29990 -0.25000 0.0000000000000000e+00 0 0 0
11 1 0.5 1.0000000000000000e+00 11.29990 -0.75000 0.0000000000000000e+00 0 0 0
12 1 0.5 1.0000000000000000e+00 11.73320 1.00000 0.0000000000000000e+00 0 0 0
13 1 0.5 1.0000000000000000e+00 11.73320 0.50000 0.0000000000000000e+00 0 0 0
14 1 0.5 1.0000000000000000e+00 11.73320 0.000000 0.0000000000000000e+00 0 0 0
15 1 0.5 1.0000000000000000e+00 11.73320 -0.50000 0.0000000000000000e+00 0 0 0
16 1 0.5 1.0000000000000000e+00 11.73320 -1.00000 0.0000000000000000e+00 0 0 0
17 1 0.5 1.0000000000000000e+00 12.16650 1.25000 0.0000000000000000e+00 0 0 0
18 1 0.5 1.0000000000000000e+00 12.16650 0.75000 0.0000000000000000e+00 0 0 0
19 1 0.5 1.0000000000000000e+00 12.16650 0.25000 0.0000000000000000e+00 0 0 0
20 1 0.5 1.0000000000000000e+00 12.16650 -0.25000 0.0000000000000000e+00 0 0 0
21 1 0.5 1.0000000000000000e+00 12.16650 -0.75000 0.0000000000000000e+00 0 0 0
22 1 0.5 1.0000000000000000e+00 12.16650 -1.25000 0.0000000000000000e+00 0 0 0

Velocities

1 5.0 0.0 0.0 0.0000000000000000e+00 0.0000000000000000e+00 0.0
2 0.0 0.0 0.0 0.0000000000000000e+00 0.0000000000000000e+00 0.0
3 0.0 0.0 0.0 0.0000000000000000e+00 0.0000000000000000e+00 0.0
4 0.0 0.0 0.0 0.0000000000000000e+00 0.0000000000000000e+00 0.0
5 0.0 0.0 0.0 0.0000000000000000e+00 0.0000000000000000e+00 0.0
6 0.0 0.0 0.0 0.0000000000000000e+00 0.0000000000000000e+00 0.0
7 0.0 0.0 0.0 0.0000000000000000e+00 0.0000000000000000e+00 0.0
8 0.0 0.0 0.0 0.0000000000000000e+00 0.0000000000000000e+00 0.0
9 0.0 0.0 0.0 0.0000000000000000e+00 0.0000000000000000e+00 0.0
10 0.0 0.0 0.0 0.0000000000000000e+00 0.0000000000000000e+00 0.0
11 0.0 0.0 0.0 0.0000000000000000e+00 0.0000000000000000e+00 0.0
12 0.0 0.0 0.0 0.0000000000000000e+00 0.0000000000000000e+00 0.0
13 0.0 0.0 0.0 0.0000000000000000e+00 0.0000000000000000e+00 0.0
14 0.0 0.0 0.0 0.0000000000000000e+00 0.0000000000000000e+00 0.0
15 0.0 0.0 0.0 0.0000000000000000e+00 0.0000000000000000e+00 0.0
16 0.0 0.0 0.0 0.0000000000000000e+00 0.0000000000000000e+00 0.0
17 0.0 0.0 0.0 0.0000000000000000e+00 0.0000000000000000e+00 0.0
18 0.0 0.0 0.0 0.0000000000000000e+00 0.0000000000000000e+00 0.0
19 0.0 0.0 0.0 0.0000000000000000e+00 0.0000000000000000e+00 0.0
20 0.0 0.0 0.0 0.0000000000000000e+00 0.0000000000000000e+00 0.0
21 0.0 0.0 0.0 0.0000000000000000e+00 0.0000000000000000e+00 0.0
22 0.0 0.0 0.0 0.0000000000000000e+00 0.0000000000000000e+00 0.0
